/*--------------------------------*- C++ -*----------------------------------*\
  =========                 |
  \\      /  F ield         | OpenFOAM: The Open Source CFD Toolbox
   \\    /   O peration     | Website:  https://openfoam.org
    \\  /    A nd           | Version:  dev
     \\/     M anipulation  |
\*---------------------------------------------------------------------------*/
FoamFile
{
    format      ascii;
    class       volScalarField;
    location    "5";
    object      T.liquid;
}
// * * * * * * * * * * * * * * * * * * * * * * * * * * * * * * * * * * * * * //

dimensions      [0 0 0 1 0 0 0];

internalField   uniform 281.5;

boundaryField
{
    left
    {
        type            inletOutlet;
        inletValue      uniform 281.5;
        value           uniform 281.5;
    }
    right
    {
        type            inletOutlet;
        inletValue      uniform 281.5;
        value           uniform 281.5;
    }
    containerWalls
    {
        type            zeroGradient;
    }
    containerBase
    {
        type            zeroGradient;
    }
    ground
    {
        type            zeroGradient;
    }
    atmosphere
    {
        type            inletOutlet;
        inletValue      uniform 281.5;
        value           uniform 281.5;
    }
    frontAndBack
    {
        type            empty;
    }
}


// ************************************************************************* //
